ITEM: TIMESTEP
0
ITEM: NUMBER OF ATOMS
24000
ITEM: BOX BOUNDS pp pp pp
0.0000000000000000e+00 6.2000000000000000e+01
0.0000000000000000e+00 6.2000000000000000e+01
0.0000000000000000e+00 6.2000000000000000e+01
ITEM: ATOMS id type mol x y z 
1 2 1 1.55 1.55 1.5 
2 1 1 1.55 2.36649 2.07736 
3 1 1 1.55 0.73351 2.07736 
1201 2 401 1.55 1.55 4.6 
1202 1 401 1.55 2.36649 5.17736 
1203 1 401 1.55 0.73351 5.17736 
61 2 21 1.55 4.65 1.5 
62 1 21 1.55 5.46649 2.07736 
63 1 21 1.55 3.83351 2.07736 
1261 2 421 1.55 4.65 4.6 
1262 1 421 1.55 5.46649 5.17736 
1263 1 421 1.55 3.83351 5.17736 
4 2 2 4.65 1.55 1.5 
5 1 2 4.65 2.36649 2.07736 
6 1 2 4.65 0.73351 2.07736 
1204 2 402 4.65 1.55 4.6 
1205 1 402 4.65 2.36649 5.17736 
1206 1 402 4.65 0.73351 5.17736 
64 2 22 4.65 4.65 1.5 
65 1 22 4.65 5.46649 2.07736 
66 1 22 4.65 3.83351 2.07736 
1264 2 422 4.65 4.65 4.6 
1265 1 422 4.65 5.46649 5.17736 
1266 1 422 4.65 3.83351 5.17736 
7 2 3 7.75 1.55 1.5 
8 1 3 7.75 2.36649 2.07736 
9 1 3 7.75 0.73351 2.07736 
1207 2 403 7.75 1.55 4.6 
1208 1 403 7.75 2.36649 5.17736 
1209 1 403 7.75 0.73351 5.17736 
67 2 23 7.75 4.65 1.5 
68 1 23 7.75 5.46649 2.07736 
69 1 23 7.75 3.83351 2.07736 
1267 2 423 7.75 4.65 4.6 
1268 1 423 7.75 5.46649 5.17736 
1269 1 423 7.75 3.83351 5.17736 
10 2 4 10.85 1.55 1.5 
11 1 4 10.85 2.36649 2.07736 
12 1 4 10.85 0.73351 2.07736 
1210 2 404 10.85 1.55 4.6 
1211 1 404 10.85 2.36649 5.17736 
1212 1 404 10.85 0.73351 5.17736 
70 2 24 10.85 4.65 1.5 
71 1 24 10.85 5.46649 2.07736 
72 1 24 10.85 3.83351 2.07736 
1270 2 424 10.85 4.65 4.6 
1271 1 424 10.85 5.46649 5.17736 
1272 1 424 10.85 3.83351 5.17736 
13 2 5 13.95 1.55 1.5 
14 1 5 13.95 2.36649 2.07736 
15 1 5 13.95 0.73351 2.07736 
1213 2 405 13.95 1.55 4.6 
1214 1 405 13.95 2.36649 5.17736 
1215 1 405 13.95 0.73351 5.17736 
73 2 25 13.95 4.65 1.5 
74 1 25 13.95 5.46649 2.07736 
75 1 25 13.95 3.83351 2.07736 
1273 2 425 13.95 4.65 4.6 
1274 1 425 13.95 5.46649 5.17736 
1275 1 425 13.95 3.83351 5.17736 
16 2 6 17.05 1.55 1.5 
17 1 6 17.05 2.36649 2.07736 
18 1 6 17.05 0.73351 2.07736 
1216 2 406 17.05 1.55 4.6 
1217 1 406 17.05 2.36649 5.17736 
1218 1 406 17.05 0.73351 5.17736 
76 2 26 17.05 4.65 1.5 
77 1 26 17.05 5.46649 2.07736 
78 1 26 17.05 3.83351 2.07736 
1276 2 426 17.05 4.65 4.6 
1277 1 426 17.05 5.46649 5.17736 
1278 1 426 17.05 3.83351 5.17736 
19 2 7 20.15 1.55 1.5 
20 1 7 20.15 2.36649 2.07736 
21 1 7 20.15 0.73351 2.07736 
1219 2 407 20.15 1.55 4.6 
1220 1 407 20.15 2.36649 5.17736 
1221 1 407 20.15 0.73351 5.17736 
79 2 27 20.15 4.65 1.5 
80 1 27 20.15 5.46649 2.07736 
81 1 27 20.15 3.83351 2.07736 
1279 2 427 20.15 4.65 4.6 
1280 1 427 20.15 5.46649 5.17736 
1281 1 427 20.15 3.83351 5.17736 
22 2 8 23.25 1.55 1.5 
23 1 8 23.25 2.36649 2.07736 
24 1 8 23.25 0.73351 2.07736 
1222 2 408 23.25 1.55 4.6 
1223 1 408 23.25 2.36649 5.17736 
1224 1 408 23.25 0.73351 5.17736 
82 2 28 23.25 4.65 1.5 
83 1 28 23.25 5.46649 2.07736 
84 1 28 23.25 3.83351 2.07736 
1282 2 428 23.25 4.65 4.6 
1283 1 428 23.25 5.46649 5.17736 
1284 1 428 23.25 3.83351 5.17736 
25 2 9 26.35 1.55 1.5 
26 1 9 26.35 2.36649 2.07736 
27 1 9 26.35 0.73351 2.07736 
1225 2 409 26.35 1.55 4.6 
1226 1 409 26.35 2.36649 5.17736 
1227 1 409 26.35 0.73351 5.17736 
85 2 29 26.35 4.65 1.5 
86 1 29 26.35 5.46649 2.07736 
87 1 29 26.35 3.83351 2.07736 
1285 2 429 26.35 4.65 4.6 
1286 1 429 26.35 5.46649 5.17736 
1287 1 429 26.35 3.83351 5.17736 
28 2 10 29.45 1.55 1.5 
29 1 10 29.45 2.36649 2.07736 
30 1 10 29.45 0.73351 2.07736 
1228 2 410 29.45 1.55 4.6 
1229 1 410 29.45 2.36649 5.17736 
1230 1 410 29.45 0.73351 5.17736 
88 2 30 29.45 4.65 1.5 
89 1 30 29.45 5.46649 2.07736 
90 1 30 29.45 3.83351 2.07736 
1288 2 430 29.45 4.65 4.6 
1289 1 430 29.45 5.46649 5.17736 
1290 1 430 29.45 3.83351 5.17736 
31 2 11 32.55 1.55 1.5 
32 1 11 32.55 2.36649 2.07736 
33 1 11 32.55 0.73351 2.07736 
1231 2 411 32.55 1.55 4.6 
1232 1 411 32.55 2.36649 5.17736 
1233 1 411 32.55 0.73351 5.17736 
91 2 31 32.55 4.65 1.5 
92 1 31 32.55 5.46649 2.07736 
93 1 31 32.55 3.83351 2.07736 
1291 2 431 32.55 4.65 4.6 
1292 1 431 32.55 5.46649 5.17736 
1293 1 431 32.55 3.83351 5.17736 
34 2 12 35.65 1.55 1.5 
35 1 12 35.65 2.36649 2.07736 
36 1 12 35.65 0.73351 2.07736 
1234 2 412 35.65 1.55 4.6 
1235 1 412 35.65 2.36649 5.17736 
1236 1 412 35.65 0.73351 5.17736 
94 2 32 35.65 4.65 1.5 
95 1 32 35.65 5.46649 2.07736 
96 1 32 35.65 3.83351 2.07736 
1294 2 432 35.65 4.65 4.6 
1295 1 432 35.65 5.46649 5.17736 
1296 1 432 35.65 3.83351 5.17736 
37 2 13 38.75 1.55 1.5 
38 1 13 38.75 2.36649 2.07736 
39 1 13 38.75 0.73351 2.07736 
1237 2 413 38.75 1.55 4.6 
1238 1 413 38.75 2.36649 5.17736 
1239 1 413 38.75 0.73351 5.17736 
97 2 33 38.75 4.65 1.5 
98 1 33 38.75 5.46649 2.07736 
99 1 33 38.75 3.83351 2.07736 
1297 2 433 38.75 4.65 4.6 
1298 1 433 38.75 5.46649 5.17736 
1299 1 433 38.75 3.83351 5.17736 
40 2 14 41.85 1.55 1.5 
41 1 14 41.85 2.36649 2.07736 
42 1 14 41.85 0.73351 2.07736 
1240 2 414 41.85 1.55 4.6 
1241 1 414 41.85 2.36649 5.17736 
1242 1 414 41.85 0.73351 5.17736 
100 2 34 41.85 4.65 1.5 
101 1 34 41.85 5.46649 2.07736 
102 1 34 41.85 3.83351 2.07736 
1300 2 434 41.85 4.65 4.6 
1301 1 434 41.85 5.46649 5.17736 
1302 1 434 41.85 3.83351 5.17736 
43 2 15 44.95 1.55 1.5 
44 1 15 44.95 2.36649 2.07736 
45 1 15 44.95 0.73351 2.07736 
1243 2 415 44.95 1.55 4.6 
1244 1 415 44.95 2.36649 5.17736 
1245 1 415 44.95 0.73351 5.17736 
103 2 35 44.95 4.65 1.5 
104 1 35 44.95 5.46649 2.07736 
105 1 35 44.95 3.83351 2.07736 
1303 2 435 44.95 4.65 4.6 
1304 1 435 44.95 5.46649 5.17736 
1305 1 435 44.95 3.83351 5.17736 
46 2 16 48.05 1.55 1.5 
47 1 16 48.05 2.36649 2.07736 
48 1 16 48.05 0.73351 2.07736 
1246 2 416 48.05 1.55 4.6 
1247 1 416 48.05 2.36649 5.17736 
1248 1 416 48.05 0.73351 5.17736 
106 2 36 48.05 4.65 1.5 
107 1 36 48.05 5.46649 2.07736 
108 1 36 48.05 3.83351 2.07736 
1306 2 436 48.05 4.65 4.6 
1307 1 436 48.05 5.46649 5.17736 
1308 1 436 48.05 3.83351 5.17736 
49 2 17 51.15 1.55 1.5 
50 1 17 51.15 2.36649 2.07736 
51 1 17 51.15 0.73351 2.07736 
1249 2 417 51.15 1.55 4.6 
1250 1 417 51.15 2.36649 5.17736 
1251 1 417 51.15 0.73351 5.17736 
109 2 37 51.15 4.65 1.5 
110 1 37 51.15 5.46649 2.07736 
111 1 37 51.15 3.83351 2.07736 
1309 2 437 51.15 4.65 4.6 
1310 1 437 51.15 5.46649 5.17736 
1311 1 437 51.15 3.83351 5.17736 
52 2 18 54.25 1.55 1.5 
53 1 18 54.25 2.36649 2.07736 
54 1 18 54.25 0.73351 2.07736 
1252 2 418 54.25 1.55 4.6 
1253 1 418 54.25 2.36649 5.17736 
1254 1 418 54.25 0.73351 5.17736 
112 2 38 54.25 4.65 1.5 
113 1 38 54.25 5.46649 2.07736 
114 1 38 54.25 3.83351 2.07736 
1312 2 438 54.25 4.65 4.6 
1313 1 438 54.25 5.46649 5.17736 
1314 1 438 54.25 3.83351 5.17736 
55 2 19 57.35 1.55 1.5 
56 1 19 57.35 2.36649 2.07736 
57 1 19 57.35 0.73351 2.07736 
1255 2 419 57.35 1.55 4.6 
1256 1 419 57.35 2.36649 5.17736 
1257 1 419 57.35 0.73351 5.17736 
115 2 39 57.35 4.65 1.5 
116 1 39 57.35 5.46649 2.07736 
117 1 39 57.35 3.83351 2.07736 
1315 2 439 57.35 4.65 4.6 
1316 1 439 57.35 5.46649 5.17736 
1317 1 439 57.35 3.83351 5.17736 
58 2 20 60.45 1.55 1.5 
59 1 20 60.45 2.36649 2.07736 
60 1 20 60.45 0.73351 2.07736 
1258 2 420 60.45 1.55 4.6 
1259 1 420 60.45 2.36649 5.17736 
1260 1 420 60.45 0.73351 5.17736 
118 2 40 60.45 4.65 1.5 
119 1 40 60.45 5.46649 2.07736 
120 1 40 60.45 3.83351 2.07736 
1318 2 440 60.45 4.65 4.6 
1319 1 440 60.45 5.46649 5.17736 
1320 1 440 60.45 3.83351 5.17736 
121 2 41 1.55 7.75 1.5 
122 1 41 1.55 8.56649 2.07736 
123 1 41 1.55 6.93351 2.07736 
1321 2 441 1.55 7.75 4.6 
1322 1 441 1.55 8.56649 5.17736 
1323 1 441 1.55 6.93351 5.17736 
181 2 61 1.55 10.85 1.5 
182 1 61 1.55 11.6665 2.07736 
183 1 61 1.55 10.0335 2.07736 
1381 2 461 1.55 10.85 4.6 
1382 1 461 1.55 11.6665 5.17736 
1383 1 461 1.55 10.0335 5.17736 
124 2 42 4.65 7.75 1.5 
125 1 42 4.65 8.56649 2.07736 
126 1 42 4.65 6.93351 2.07736 
1324 2 442 4.65 7.75 4.6 
1325 1 442 4.65 8.56649 5.17736 
1326 1 442 4.65 6.93351 5.17736 
184 2 62 4.65 10.85 1.5 
185 1 62 4.65 11.6665 2.07736 
186 1 62 4.65 10.0335 2.07736 
1384 2 462 4.65 10.85 4.6 
1385 1 462 4.65 11.6665 5.17736 
1386 1 462 4.65 10.0335 5.17736 
127 2 43 7.75 7.75 1.5 
128 1 43 7.75 8.56649 2.07736 
129 1 43 7.75 6.93351 2.07736 
1327 2 443 7.75 7.75 4.6 
1328 1 443 7.75 8.56649 5.17736 
1329 1 443 7.75 6.93351 5.17736 
187 2 63 7.75 10.85 1.5 
188 1 63 7.75 11.6665 2.07736 
189 1 63 7.75 10.0335 2.07736 
1387 2 463 7.75 10.85 4.6 
1388 1 463 7.75 11.6665 5.17736 
1389 1 463 7.75 10.0335 5.17736 
130 2 44 10.85 7.75 1.5 
131 1 44 10.85 8.56649 2.07736 
132 1 44 10.85 6.93351 2.07736 
1330 2 444 10.85 7.75 4.6 
1331 1 444 10.85 8.56649 5.17736 
1332 1 444 10.85 6.93351 5.17736 
190 2 64 10.85 10.85 1.5 
191 1 64 10.85 11.6665 2.07736 
192 1 64 10.85 10.0335 2.07736 
1390 2 464 10.85 10.85 4.6 
1391 1 464 10.85 11.6665 5.17736 
1392 1 464 10.85 10.0335 5.17736 
133 2 45 13.95 7.75 1.5 
134 1 45 13.95 8.56649 2.07736 
135 1 45 13.95 6.93351 2.07736 
1333 2 445 13.95 7.75 4.6 
1334 1 445 13.95 8.56649 5.17736 
1335 1 445 13.95 6.93351 5.17736 
193 2 65 13.95 10.85 1.5 
194 1 65 13.95 11.6665 2.07736 
195 1 65 13.95 10.0335 2.07736 
1393 2 465 13.95 10.85 4.6 
1394 1 465 13.95 11.6665 5.17736 
1395 1 465 13.95 10.0335 5.17736 
136 2 46 17.05 7.75 1.5 
137 1 46 17.05 8.56649 2.07736 
138 1 46 17.05 6.93351 2.07736 
1336 2 446 17.05 7.75 4.6 
1337 1 446 17.05 8.56649 5.17736 
1338 1 446 17.05 6.93351 5.17736 
196 2 66 17.05 10.85 1.5 
197 1 66 17.05 11.6665 2.07736 
198 1 66 17.05 10.0335 2.07736 
1396 2 466 17.05 10.85 4.6 
1397 1 466 17.05 11.6665 5.17736 
1398 1 466 17.05 10.0335 5.17736 
139 2 47 20.15 7.75 1.5 
140 1 47 20.15 8.56649 2.07736 
141 1 47 20.15 6.93351 2.07736 
1339 2 447 20.15 7.75 4.6 
1340 1 447 20.15 8.56649 5.17736 
1341 1 447 20.15 6.93351 5.17736 
199 2 67 20.15 10.85 1.5 
200 1 67 20.15 11.6665 2.07736 
201 1 67 20.15 10.0335 2.07736 
1399 2 467 20.15 10.85 4.6 
1400 1 467 20.15 11.6665 5.17736 
1401 1 467 20.15 10.0335 5.17736 
142 2 48 23.25 7.75 1.5 
143 1 48 23.25 8.56649 2.07736 
144 1 48 23.25 6.93351 2.07736 
1342 2 448 23.25 7.75 4.6 
1343 1 448 23.25 8.56649 5.17736 
1344 1 448 23.25 6.93351 5.17736 
202 2 68 23.25 10.85 1.5 
203 1 68 23.25 11.6665 2.07736 
204 1 68 23.25 10.0335 2.07736 
1402 2 468 23.25 10.85 4.6 
1403 1 468 23.25 11.6665 5.17736 
1404 1 468 23.25 10.0335 5.17736 
145 2 49 26.35 7.75 1.5 
146 1 49 26.35 8.56649 2.07736 
147 1 49 26.35 6.93351 2.07736 
1345 2 449 26.35 7.75 4.6 
1346 1 449 26.35 8.56649 5.17736 
1347 1 449 26.35 6.93351 5.17736 
205 2 69 26.35 10.85 1.5 
206 1 69 26.35 11.6665 2.07736 
207 1 69 26.35 10.0335 2.07736 
1405 2 469 26.35 10.85 4.6 
1406 1 469 26.35 11.6665 5.17736 
1407 1 469 26.35 10.0335 5.17736 
148 2 50 29.45 7.75 1.5 
149 1 50 29.45 8.56649 2.07736 
150 1 50 29.45 6.93351 2.07736 
1348 2 450 29.45 7.75 4.6 
1349 1 450 29.45 8.56649 5.17736 
1350 1 450 29.45 6.93351 5.17736 
208 2 70 29.45 10.85 1.5 
209 1 70 29.45 11.6665 2.07736 
210 1 70 29.45 10.0335 2.07736 
1408 2 470 29.45 10.85 4.6 
1409 1 470 29.45 11.6665 5.17736 
1410 1 470 29.45 10.0335 5.17736 
151 2 51 32.55 7.75 1.5 
152 1 51 32.55 8.56649 2.07736 
153 1 51 32.55 6.93351 2.07736 
1351 2 451 32.55 7.75 4.6 
1352 1 451 32.55 8.56649 5.17736 
1353 1 451 32.55 6.93351 5.17736 
211 2 71 32.55 10.85 1.5 
212 1 71 32.55 11.6665 2.07736 
213 1 71 32.55 10.0335 2.07736 
1411 2 471 32.55 10.85 4.6 
1412 1 471 32.55 11.6665 5.17736 
1413 1 471 32.55 10.0335 5.17736 
154 2 52 35.65 7.75 1.5 
155 1 52 35.65 8.56649 2.07736 
156 1 52 35.65 6.93351 2.07736 
1354 2 452 35.65 7.75 4.6 
1355 1 452 35.65 8.56649 5.17736 
1356 1 452 35.65 6.93351 5.17736 
214 2 72 35.65 10.85 1.5 
215 1 72 35.65 11.6665 2.07736 
216 1 72 35.65 10.0335 2.07736 
1414 2 472 35.65 10.85 4.6 
1415 1 472 35.65 11.6665 5.17736 
1416 1 472 35.65 10.0335 5.17736 
157 2 53 38.75 7.75 1.5 
158 1 53 38.75 8.56649 2.07736 
159 1 53 38.75 6.93351 2.07736 
1357 2 453 38.75 7.75 4.6 
1358 1 453 38.75 8.56649 5.17736 
1359 1 453 38.75 6.93351 5.17736 
217 2 73 38.75 10.85 1.5 
218 1 73 38.75 11.6665 2.07736 
219 1 73 38.75 10.0335 2.07736 
1417 2 473 38.75 10.85 4.6 
1418 1 473 38.75 11.6665 5.17736 
1419 1 473 38.75 10.0335 5.17736 
160 2 54 41.85 7.75 1.5 
161 1 54 41.85 8.56649 2.07736 
162 1 54 41.85 6.93351 2.07736 
1360 2 454 41.85 7.75 4.6 
1361 1 454 41.85 8.56649 5.17736 
1362 1 454 41.85 6.93351 5.17736 
220 2 74 41.85 10.85 1.5 
221 1 74 41.85 11.6665 2.07736 
222 1 74 41.85 10.0335 2.07736 
1420 2 474 41.85 10.85 4.6 
1421 1 474 41.85 11.6665 5.17736 
1422 1 474 41.85 10.0335 5.17736 
163 2 55 44.95 7.75 1.5 
164 1 55 44.95 8.56649 2.07736 
165 1 55 44.95 6.93351 2.07736 
1363 2 455 44.95 7.75 4.6 
1364 1 455 44.95 8.56649 5.17736 
1365 1 455 44.95 6.93351 5.17736 
223 2 75 44.95 10.85 1.5 
224 1 75 44.95 11.6665 2.07736 
225 1 75 44.95 10.0335 2.07736 
1423 2 475 44.95 10.85 4.6 
1424 1 475 44.95 11.6665 5.17736 
1425 1 475 44.95 10.0335 5.17736 
166 2 56 48.05 7.75 1.5 
167 1 56 48.05 8.56649 2.07736 
168 1 56 48.05 6.93351 2.07736 
1366 2 456 48.05 7.75 4.6 
1367 1 456 48.05 8.56649 5.17736 
1368 1 456 48.05 6.93351 5.17736 
226 2 76 48.05 10.85 1.5 
227 1 76 48.05 11.6665 2.07736 
228 1 76 48.05 10.0335 2.07736 
1426 2 476 48.05 10.85 4.6 
1427 1 476 48.05 11.6665 5.17736 
1428 1 476 48.05 10.0335 5.17736 
169 2 57 51.15 7.75 1.5 
170 1 57 51.15 8.56649 2.07736 
171 1 57 51.15 6.93351 2.07736 
1369 2 457 51.15 7.75 4.6 
1370 1 457 51.15 8.56649 5.17736 
1371 1 457 51.15 6.93351 5.17736 
229 2 77 51.15 10.85 1.5 
230 1 77 51.15 11.6665 2.07736 
231 1 77 51.15 10.0335 2.07736 
1429 2 477 51.15 10.85 4.6 
1430 1 477 51.15 11.6665 5.17736 
1431 1 477 51.15 10.0335 5.17736 
172 2 58 54.25 7.75 1.5 
173 1 58 54.25 8.56649 2.07736 
174 1 58 54.25 6.93351 2.07736 
1372 2 458 54.25 7.75 4.6 
1373 1 458 54.25 8.56649 5.17736 
1374 1 458 54.25 6.93351 5.17736 
232 2 78 54.25 10.85 1.5 
233 1 78 54.25 11.6665 2.07736 
234 1 78 54.25 10.0335 2.07736 
1432 2 478 54.25 10.85 4.6 
1433 1 478 54.25 11.6665 5.17736 
1434 1 478 54.25 10.0335 5.17736 
175 2 59 57.35 7.75 1.5 
176 1 59 57.35 8.56649 2.07736 
177 1 59 57.35 6.93351 2.07736 
1375 2 459 57.35 7.75 4.6 
1376 1 459 57.35 8.56649 5.17736 
1377 1 459 57.35 6.93351 5.17736 
235 2 79 57.35 10.85 1.5 
236 1 79 57.35 11.6665 2.07736 
237 1 79 57.35 10.0335 2.07736 
1435 2 479 57.35 10.85 4.6 
1436 1 479 57.35 11.6665 5.17736 
1437 1 479 57.35 10.0335 5.17736 
178 2 60 60.45 7.75 1.5 
179 1 60 60.45 8.56649 2.07736 
180 1 60 60.45 6.93351 2.07736 
1378 2 460 60.45 7.75 4.6 
1379 1 460 60.45 8.56649 5.17736 
1380 1 460 60.45 6.93351 5.17736 
238 2 80 60.45 10.85 1.5 
239 1 80 60.45 11.6665 2.07736 
240 1 80 60.45 10.0335 2.07736 
1438 2 480 60.45 10.85 4.6 
1439 1 480 60.45 11.6665 5.17736 
1440 1 480 60.45 10.0335 5.17736 
241 2 81 1.55 13.95 1.5 
242 1 81 1.55 14.7665 2.07736 
243 1 81 1.55 13.1335 2.07736 
1441 2 481 1.55 13.95 4.6 
1442 1 481 1.55 14.7665 5.17736 
1443 1 481 1.55 13.1335 5.17736 
301 2 101 1.55 17.05 1.5 
302 1 101 1.55 17.8665 2.07736 
303 1 101 1.55 16.2335 2.07736 
1501 2 501 1.55 17.05 4.6 
1502 1 501 1.55 17.8665 5.17736 
1503 1 501 1.55 16.2335 5.17736 
244 2 82 4.65 13.95 1.5 
245 1 82 4.65 14.7665 2.07736 
246 1 82 4.65 13.1335 2.07736 
1444 2 482 4.65 13.95 4.6 
1445 1 482 4.65 14.7665 5.17736 
1446 1 482 4.65 13.1335 5.17736 
304 2 102 4.65 17.05 1.5 
305 1 102 4.65 17.8665 2.07736 
306 1 102 4.65 16.2335 2.07736 
1504 2 502 4.65 17.05 4.6 
1505 1 502 4.65 17.8665 5.17736 
1506 1 502 4.65 16.2335 5.17736 
247 2 83 7.75 13.95 1.5 
248 1 83 7.75 14.7665 2.07736 
249 1 83 7.75 13.1335 2.07736 
1447 2 483 7.75 13.95 4.6 
1448 1 483 7.75 14.7665 5.17736 
1449 1 483 7.75 13.1335 5.17736 
307 2 103 7.75 17.05 1.5 
308 1 103 7.75 17.8665 2.07736 
309 1 103 7.75 16.2335 2.07736 
1507 2 503 7.75 17.05 4.6 
1508 1 503 7.75 17.8665 5.17736 
1509 1 503 7.75 16.2335 5.17736 
250 2 84 10.85 13.95 1.5 
251 1 84 10.85 14.7665 2.07736 
252 1 84 10.85 13.1335 2.07736 
1450 2 484 10.85 13.95 4.6 
1451 1 484 10.85 14.7665 5.17736 
1452 1 484 10.85 13.1335 5.17736 
310 2 104 10.85 17.05 1.5 
311 1 104 10.85 17.8665 2.07736 
312 1 104 10.85 16.2335 2.07736 
1510 2 504 10.85 17.05 4.6 
1511 1 504 10.85 17.8665 5.17736 
1512 1 504 10.85 16.2335 5.17736 
253 2 85 13.95 13.95 1.5 
254 1 85 13.95 14.7665 2.07736 
255 1 85 13.95 13.1335 2.07736 
1453 2 485 13.95 13.95 4.6 
1454 1 485 13.95 14.7665 5.17736 
1455 1 485 13.95 13.1335 5.17736 
313 2 105 13.95 17.05 1.5 
314 1 105 13.95 17.8665 2.07736 
315 1 105 13.95 16.2335 2.07736 
1513 2 505 13.95 17.05 4.6 
1514 1 505 13.95 17.8665 5.17736 
1515 1 505 13.95 16.2335 5.17736 
256 2 86 17.05 13.95 1.5 
257 1 86 17.05 14.7665 2.07736 
258 1 86 17.05 13.1335 2.07736 
1456 2 486 17.05 13.95 4.6 
1457 1 486 17.05 14.7665 5.17736 
1458 1 486 17.05 13.1335 5.17736 
316 2 106 17.05 17.05 1.5 
317 1 106 17.05 17.8665 2.07736 
318 1 106 17.05 16.2335 2.07736 
1516 2 506 17.05 17.05 4.6 
1517 1 506 17.05 17.8665 5.17736 
1518 1 506 17.05 16.2335 5.17736 
259 2 87 20.15 13.95 1.5 
260 1 87 20.15 14.7665 2.07736 
261 1 87 20.15 13.1335 2.07736 
1459 2 487 20.15 13.95 4.6 
1460 1 487 20.15 14.7665 5.17736 
1461 1 487 20.15 13.1335 5.17736 
319 2 107 20.15 17.05 1.5 
320 1 107 20.15 17.8665 2.07736 
321 1 107 20.15 16.2335 2.07736 
1519 2 507 20.15 17.05 4.6 
1520 1 507 20.15 17.8665 5.17736 
1521 1 507 20.15 16.2335 5.17736 
262 2 88 23.25 13.95 1.5 
263 1 88 23.25 14.7665 2.07736 
264 1 88 23.25 13.1335 2.07736 
1462 2 488 23.25 13.95 4.6 
1463 1 488 23.25 14.7665 5.17736 
1464 1 488 23.25 13.1335 5.17736 
322 2 108 23.25 17.05 1.5 
323 1 108 23.25 17.8665 2.07736 
324 1 108 23.25 16.2335 2.07736 
1522 2 508 23.25 17.05 4.6 
1523 1 508 23.25 17.8665 5.17736 
1524 1 508 23.25 16.2335 5.17736 
265 2 89 26.35 13.95 1.5 
266 1 89 26.35 14.7665 2.07736 
267 1 89 26.35 13.1335 2.07736 
1465 2 489 26.35 13.95 4.6 
1466 1 489 26.35 14.7665 5.17736 
1467 1 489 26.35 13.1335 5.17736 
325 2 109 26.35 17.05 1.5 
326 1 109 26.35 17.8665 2.07736 
327 1 109 26.35 16.2335 2.07736 
1525 2 509 26.35 17.05 4.6 
1526 1 509 26.35 17.8665 5.17736 
1527 1 509 26.35 16.2335 5.17736 
268 2 90 29.45 13.95 1.5 
269 1 90 29.45 14.7665 2.07736 
270 1 90 29.45 13.1335 2.07736 
1468 2 490 29.45 13.95 4.6 
1469 1 490 29.45 14.7665 5.17736 
1470 1 490 29.45 13.1335 5.17736 
328 2 110 29.45 17.05 1.5 
329 1 110 29.45 17.8665 2.07736 
330 1 110 29.45 16.2335 2.07736 
1528 2 510 29.45 17.05 4.6 
1529 1 510 29.45 17.8665 5.17736 
1530 1 510 29.45 16.2335 5.17736 
271 2 91 32.55 13.95 1.5 
272 1 91 32.55 14.7665 2.07736 
273 1 91 32.55 13.1335 2.07736 
1471 2 491 32.55 13.95 4.6 
1472 1 491 32.55 14.7665 5.17736 
1473 1 491 32.55 13.1335 5.17736 
331 2 111 32.55 17.05 1.5 
332 1 111 32.55 17.8665 2.07736 
333 1 111 32.55 16.2335 2.07736 
1531 2 511 32.55 17.05 4.6 
1532 1 511 32.55 17.8665 5.17736 
1533 1 511 32.55 16.2335 5.17736 
274 2 92 35.65 13.95 1.5 
275 1 92 35.65 14.7665 2.07736 
276 1 92 35.65 13.1335 2.07736 
1474 2 492 35.65 13.95 4.6 
1475 1 492 35.65 14.7665 5.17736 
1476 1 492 35.65 13.1335 5.17736 
334 2 112 35.65 17.05 1.5 
335 1 112 35.65 17.8665 2.07736 
336 1 112 35.65 16.2335 2.07736 
1534 2 512 35.65 17.05 4.6 
1535 1 512 35.65 17.8665 5.17736 
1536 1 512 35.65 16.2335 5.17736 
277 2 93 38.75 13.95 1.5 
278 1 93 38.75 14.7665 2.07736 
279 1 93 38.75 13.1335 2.07736 
1477 2 493 38.75 13.95 4.6 
1478 1 493 38.75 14.7665 5.17736 
1479 1 493 38.75 13.1335 5.17736 
337 2 113 38.75 17.05 1.5 
338 1 113 38.75 17.8665 2.07736 
339 1 113 38.75 16.2335 2.07736 
1537 2 513 38.75 17.05 4.6 
1538 1 513 38.75 17.8665 5.17736 
1539 1 513 38.75 16.2335 5.17736 
280 2 94 41.85 13.95 1.5 
281 1 94 41.85 14.7665 2.07736 
282 1 94 41.85 13.1335 2.07736 
1480 2 494 41.85 13.95 4.6 
1481 1 494 41.85 14.7665 5.17736 
1482 1 494 41.85 13.1335 5.17736 
340 2 114 41.85 17.05 1.5 
341 1 114 41.85 17.8665 2.07736 
342 1 114 41.85 16.2335 2.07736 
1540 2 514 41.85 17.05 4.6 
1541 1 514 41.85 17.8665 5.17736 
1542 1 514 41.85 16.2335 5.17736 
283 2 95 44.95 13.95 1.5 
284 1 95 44.95 14.7665 2.07736 
285 1 95 44.95 13.1335 2.07736 
1483 2 495 44.95 13.95 4.6 
1484 1 495 44.95 14.7665 5.17736 
1485 1 495 44.95 13.1335 5.17736 
343 2 115 44.95 17.05 1.5 
344 1 115 44.95 17.8665 2.07736 
345 1 115 44.95 16.2335 2.07736 
1543 2 515 44.95 17.05 4.6 
1544 1 515 44.95 17.8665 5.17736 
1545 1 515 44.95 16.2335 5.17736 
286 2 96 48.05 13.95 1.5 
287 1 96 48.05 14.7665 2.07736 
288 1 96 48.05 13.1335 2.07736 
1486 2 496 48.05 13.95 4.6 
1487 1 496 48.05 14.7665 5.17736 
1488 1 496 48.05 13.1335 5.17736 
346 2 116 48.05 17.05 1.5 
347 1 116 48.05 17.8665 2.07736 
348 1 116 48.05 16.2335 2.07736 
1546 2 516 48.05 17.05 4.6 
1547 1 516 48.05 17.8665 5.17736 
1548 1 516 48.05 16.2335 5.17736 
289 2 97 51.15 13.95 1.5 
290 1 97 51.15 14.7665 2.07736 
291 1 97 51.15 13.1335 2.07736 
1489 2 497 51.15 13.95 4.6 
1490 1 497 51.15 14.7665 5.17736 
1491 1 497 51.15 13.1335 5.17736 
349 2 117 51.15 17.05 1.5 
350 1 117 51.15 17.8665 2.07736 
351 1 117 51.15 16.2335 2.07736 
1549 2 517 51.15 17.05 4.6 
1550 1 517 51.15 17.8665 5.17736 
1551 1 517 51.15 16.2335 5.17736 
292 2 98 54.25 13.95 1.5 
293 1 98 54.25 14.7665 2.07736 
294 1 98 54.25 13.1335 2.07736 
1492 2 498 54.25 13.95 4.6 
1493 1 498 54.25 14.7665 5.17736 
1494 1 498 54.25 13.1335 5.17736 
352 2 118 54.25 17.05 1.5 
353 1 118 54.25 17.8665 2.07736 
354 1 118 54.25 16.2335 2.07736 
1552 2 518 54.25 17.05 4.6 
1553 1 518 54.25 17.8665 5.17736 
1554 1 518 54.25 16.2335 5.17736 
295 2 99 57.35 13.95 1.5 
296 1 99 57.35 14.7665 2.07736 
297 1 99 57.35 13.1335 2.07736 
1495 2 499 57.35 13.95 4.6 
1496 1 499 57.35 14.7665 5.17736 
1497 1 499 57.35 13.1335 5.17736 
355 2 119 57.35 17.05 1.5 
356 1 119 57.35 17.8665 2.07736 
357 1 119 57.35 16.2335 2.07736 
1555 2 519 57.35 17.05 4.6 
1556 1 519 57.35 17.8665 5.17736 
1557 1 519 57.35 16.2335 5.17736 
298 2 100 60.45 13.95 1.5 
299 1 100 60.45 14.7665 2.07736 
300 1 100 60.45 13.1335 2.07736 
1498 2 500 60.45 13.95 4.6 
1499 1 500 60.45 14.7665 5.17736 
1500 1 500 60.45 13.1335 5.17736 
358 2 120 60.45 17.05 1.5 
359 1 120 60.45 17.8665 2.07736 
360 1 120 60.45 16.2335 2.07736 
1558 2 520 60.45 17.05 4.6 
1559 1 520 60.45 17.8665 5.17736 
1560 1 520 60.45 16.2335 5.17736 
361 2 121 1.55 20.15 1.5 
362 1 121 1.55 20.9665 2.07736 
363 1 121 1.55 19.3335 2.07736 
1561 2 521 1.55 20.15 4.6 
1562 1 521 1.55 20.9665 5.17736 
1563 1 521 1.55 19.3335 5.17736 
421 2 141 1.55 23.25 1.5 
422 1 141 1.55 24.0665 2.07736 
423 1 141 1.55 22.4335 2.07736 
1621 2 541 1.55 23.25 4.6 
1622 1 541 1.55 24.0665 5.17736 
1623 1 541 1.55 22.4335 5.17736 
364 2 122 4.65 20.15 1.5 
365 1 122 4.65 20.9665 2.07736 
366 1 122 4.65 19.3335 2.07736 
1564 2 522 4.65 20.15 4.6 
1565 1 522 4.65 20.9665 5.17736 
1566 1 522 4.65 19.3335 5.17736 
424 2 142 4.65 23.25 1.5 
425 1 142 4.65 24.0665 2.07736 
426 1 142 4.65 22.4335 2.07736 
1624 2 542 4.65 23.25 4.6 
1625 1 542 4.65 24.0665 5.17736 
1626 1 542 4.65 22.4335 5.17736 
367 2 123 7.75 20.15 1.5 
368 1 123 7.75 20.9665 2.07736 
369 1 123 7.75 19.3335 2.07736 
1567 2 523 7.75 20.15 4.6 
1568 1 523 7.75 20.9665 5.17736 
1569 1 523 7.75 19.3335 5.17736 
427 2 143 7.75 23.25 1.5 
428 1 143 7.75 24.0665 2.07736 
429 1 143 7.75 22.4335 2.07736 
1627 2 543 7.75 23.25 4.6 
1628 1 543 7.75 24.0665 5.17736 
1629 1 543 7.75 22.4335 5.17736 
370 2 124 10.85 20.15 1.5 
371 1 124 10.85 20.9665 2.07736 
372 1 124 10.85 19.3335 2.07736 
1570 2 524 10.85 20.15 4.6 
1571 1 524 10.85 20.9665 5.17736 
1572 1 524 10.85 19.3335 5.17736 
430 2 144 10.85 23.25 1.5 
431 1 144 10.85 24.0665 2.07736 
432 1 144 10.85 22.4335 2.07736 
1630 2 544 10.85 23.25 4.6 
1631 1 544 10.85 24.0665 5.17736 
1632 1 544 10.85 22.4335 5.17736 
373 2 125 13.95 20.15 1.5 
374 1 125 13.95 20.9665 2.07736 
375 1 125 13.95 19.3335 2.07736 
1573 2 525 13.95 20.15 4.6 
1574 1 525 13.95 20.9665 5.17736 
1575 1 525 13.95 19.3335 5.17736 
433 2 145 13.95 23.25 1.5 
434 1 145 13.95 24.0665 2.07736 
435 1 145 13.95 22.4335 2.07736 
1633 2 545 13.95 23.25 4.6 
1634 1 545 13.95 24.0665 5.17736 
1635 1 545 13.95 22.4335 5.17736 
376 2 126 17.05 20.15 1.5 
377 1 126 17.05 20.9665 2.07736 
378 1 126 17.05 19.3335 2.07736 
1576 2 526 17.05 20.15 4.6 
1577 1 526 17.05 20.9665 5.17736 
1578 1 526 17.05 19.3335 5.17736 
436 2 146 17.05 23.25 1.5 
437 1 146 17.05 24.0665 2.07736 
438 1 146 17.05 22.4335 2.07736 
1636 2 546 17.05 23.25 4.6 
1637 1 546 17.05 24.0665 5.17736 
1638 1 546 17.05 22.4335 5.17736 
379 2 127 20.15 20.15 1.5 
380 1 127 20.15 20.9665 2.07736 
381 1 127 20.15 19.3335 2.07736 
1579 2 527 20.15 20.15 4.6 
1580 1 527 20.15 20.9665 5.17736 
1581 1 527 20.15 19.3335 5.17736 
439 2 147 20.15 23.25 1.5 
440 1 147 20.15 24.0665 2.07736 
441 1 147 20.15 22.4335 2.07736 
1639 2 547 20.15 23.25 4.6 
1640 1 547 20.15 24.0665 5.17736 
1641 1 547 20.15 22.4335 5.17736 
382 2 128 23.25 20.15 1.5 
383 1 128 23.25 20.9665 2.07736 
384 1 128 23.25 19.3335 2.07736 
1582 2 528 23.25 20.15 4.6 
1583 1 528 23.25 20.9665 5.17736 
1584 1 528 23.25 19.3335 5.17736 
442 2 148 23.25 23.25 1.5 
443 1 148 23.25 24.0665 2.07736 
444 1 148 23.25 22.4335 2.07736 
1642 2 548 23.25 23.25 4.6 
1643 1 548 23.25 24.0665 5.17736 
1644 1 548 23.25 22.4335 5.17736 
385 2 129 26.35 20.15 1.5 
386 1 129 26.35 20.9665 2.07736 
387 1 129 26.35 19.3335 2.07736 
1585 2 529 26.35 20.15 4.6 
1586 1 529 26.35 20.9665 5.17736 
1587 1 529 26.35 19.3335 5.17736 
445 2 149 26.35 23.25 1.5 
446 1 149 26.35 24.0665 2.07736 
447 1 149 26.35 22.4335 2.07736 
1645 2 549 26.35 23.25 4.6 
1646 1 549 26.35 24.0665 5.17736 
1647 1 549 26.35 22.4335 5.17736 
388 2 130 29.45 20.15 1.5 
389 1 130 29.45 20.9665 2.07736 
390 1 130 29.45 19.3335 2.07736 
1588 2 530 29.45 20.15 4.6 
1589 1 530 29.45 20.9665 5.17736 
1590 1 530 29.45 19.3335 5.17736 
448 2 150 29.45 23.25 1.5 
449 1 150 29.45 24.0665 2.07736 
450 1 150 29.45 22.4335 2.07736 
1648 2 550 29.45 23.25 4.6 
1649 1 550 29.45 24.0665 5.17736 
1650 1 550 29.45 22.4335 5.17736 
391 2 131 32.55 20.15 1.5 
392 1 131 32.55 20.9665 2.07736 
393 1 131 32.55 19.3335 2.07736 
1591 2 531 32.55 20.15 4.6 
1592 1 531 32.55 20.9665 5.17736 
1593 1 531 32.55 19.3335 5.17736 
451 2 151 32.55 23.25 1.5 
452 1 151 32.55 24.0665 2.07736 
453 1 151 32.55 22.4335 2.07736 
1651 2 551 32.55 23.25 4.6 
1652 1 551 32.55 24.0665 5.17736 
1653 1 551 32.55 22.4335 5.17736 
394 2 132 35.65 20.15 1.5 
395 1 132 35.65 20.9665 2.07736 
396 1 132 35.65 19.3335 2.07736 
1594 2 532 35.65 20.15 4.6 
1595 1 532 35.65 20.9665 5.17736 
1596 1 532 35.65 19.3335 5.17736 
454 2 152 35.65 23.25 1.5 
455 1 152 35.65 24.0665 2.07736 
456 1 152 35.65 22.4335 2.07736 
1654 2 552 35.65 23.25 4.6 
1655 1 552 35.65 24.0665 5.17736 
1656 1 552 35.65 22.4335 5.17736 
397 2 133 38.75 20.15 1.5 
398 1 133 38.75 20.9665 2.07736 
399 1 133 38.75 19.3335 2.07736 
1597 2 533 38.75 20.15 4.6 
1598 1 533 38.75 20.9665 5.17736 
1599 1 533 38.75 19.3335 5.17736 
457 2 153 38.75 23.25 1.5 
458 1 153 38.75 24.0665 2.07736 
459 1 153 38.75 22.4335 2.07736 
1657 2 553 38.75 23.25 4.6 
1658 1 553 38.75 24.0665 5.17736 
1659 1 553 38.75 22.4335 5.17736 
400 2 134 41.85 20.15 1.5 
401 1 134 41.85 20.9665 2.07736 
402 1 134 41.85 19.3335 2.07736 
1600 2 534 41.85 20.15 4.6 
1601 1 534 41.85 20.9665 5.17736 
1602 1 534 41.85 19.3335 5.17736 
460 2 154 41.85 23.25 1.5 
461 1 154 41.85 24.0665 2.07736 
462 1 154 41.85 22.4335 2.07736 
1660 2 554 41.85 23.25 4.6 
1661 1 554 41.85 24.0665 5.17736 
1662 1 554 41.85 22.4335 5.17736 
403 2 135 44.95 20.15 1.5 
404 1 135 44.95 20.9665 2.07736 
405 1 135 44.95 19.3335 2.07736 
1603 2 535 44.95 20.15 4.6 
1604 1 535 44.95 20.9665 5.17736 
1605 1 535 44.95 19.3335 5.17736 
463 2 155 44.95 23.25 1.5 
464 1 155 44.95 24.0665 2.07736 
465 1 155 44.95 22.4335 2.07736 
1663 2 555 44.95 23.25 4.6 
1664 1 555 44.95 24.0665 5.17736 
1665 1 555 44.95 22.4335 5.17736 
406 2 136 48.05 20.15 1.5 
407 1 136 48.05 20.9665 2.07736 
408 1 136 48.05 19.3335 2.07736 
1606 2 536 48.05 20.15 4.6 
1607 1 536 48.05 20.9665 5.17736 
1608 1 536 48.05 19.3335 5.17736 
466 2 156 48.05 23.25 1.5 
467 1 156 48.05 24.0665 2.07736 
468 1 156 48.05 22.4335 2.07736 
1666 2 556 48.05 23.25 4.6 
1667 1 556 48.05 24.0665 5.17736 
1668 1 556 48.05 22.4335 5.17736 
409 2 137 51.15 20.15 1.5 
410 1 137 51.15 20.9665 2.07736 
411 1 137 51.15 19.3335 2.07736 
1609 2 537 51.15 20.15 4.6 
1610 1 537 51.15 20.9665 5.17736 
1611 1 537 51.15 19.3335 5.17736 
469 2 157 51.15 23.25 1.5 
470 1 157 51.15 24.0665 2.07736 
471 1 157 51.15 22.4335 2.07736 
1669 2 557 51.15 23.25 4.6 
1670 1 557 51.15 24.0665 5.17736 
1671 1 557 51.15 22.4335 5.17736 
412 2 138 54.25 20.15 1.5 
413 1 138 54.25 20.9665 2.07736 
414 1 138 54.25 19.3335 2.07736 
1612 2 538 54.25 20.15 4.6 
1613 1 538 54.25 20.9665 5.17736 
1614 1 538 54.25 19.3335 5.17736 
472 2 158 54.25 23.25 1.5 
473 1 158 54.25 24.0665 2.07736 
474 1 158 54.25 22.4335 2.07736 
1672 2 558 54.25 23.25 4.6 
1673 1 558 54.25 24.0665 5.17736 
1674 1 558 54.25 22.4335 5.17736 
415 2 139 57.35 20.15 1.5 
416 1 139 57.35 20.9665 2.07736 
417 1 139 57.35 19.3335 2.07736 
1615 2 539 57.35 20.15 4.6 
1616 1 539 57.35 20.9665 5.17736 
1617 1 539 57.35 19.3335 5.17736 
475 2 159 57.35 23.25 1.5 
476 1 159 57.35 24.0665 2.07736 
477 1 159 57.35 22.4335 2.07736 
1675 2 559 57.35 23.25 4.6 
1676 1 559 57.35 24.0665 5.17736 
1677 1 559 57.35 22.4335 5.17736 
418 2 140 60.45 20.15 1.5 
419 1 140 60.45 20.9665 2.07736 
420 1 140 60.45 19.3335 2.07736 
1618 2 540 60.45 20.15 4.6 
1619 1 540 60.45 20.9665 5.17736 
1620 1 540 60.45 19.3335 5.17736 
478 2 160 60.45 23.25 1.5 
479 1 160 60.45 24.0665 2.07736 
480 1 160 60.45 22.4335 2.07736 
1678 2 560 60.45 23.25 4.6 
1679 1 560 60.45 24.0665 5.17736 
1680 1 560 60.45 22.4335 5.17736 
481 2 161 1.55 26.35 1.5 
482 1 161 1.55 27.1665 2.07736 
483 1 161 1.55 25.5335 2.07736 
1681 2 561 1.55 26.35 4.6 
1682 1 561 1.55 27.1665 5.17736 
1683 1 561 1.55 25.5335 5.17736 
541 2 181 1.55 29.45 1.5 